<?xml version="1.0" encoding="UTF-8"?>

<!-- generated on 07-11-2017 07:25:31 by SUMO gui Version 0.25.0
<?xml version="1.0" encoding="UTF-8"?>

<configuration xmlns:xsi="http://www.w3.org/2001/XMLSchema-instance" xsi:noNamespaceSchemaLocation="http://sumo.dlr.de/xsd/sumo-gui.exeConfiguration.xsd">

    <input>
        <net-file value="D:\Sumo\garbage3\ait.net.xml"/>
        <additional-files value="D:\Sumo\garbage3\input_additional.add.xml"/>
    </input>

    <output>
        <tripinfo-output value="--begin%200"/>
        <save-state.prefix value="D:\Sumo\garbage3\state"/>
    </output>

    <report>
        <xml-validation value="never"/>
        <duration-log.disable value="true"/>
        <no-step-log value="true"/>
    </report>

    <emissions>
        <phemlight-path value="D:\Sumo\garbage3\./PHEMlight/"/>
    </emissions>

    <traci_server>
        <remote-port value="8873"/>
    </traci_server>

</configuration>
-->

<tripinfos xmlns:xsi="http://www.w3.org/2001/XMLSchema-instance" xsi:noNamespaceSchemaLocation="http://sumo.dlr.de/xsd/tripinfo_file.xsd">
</tripinfos>
